# vtk DataFile Version 3.0
MOAB 5.5.1
ASCII
DATASET UNSTRUCTURED_GRID
POINTS 8 double
-1 -1 -1
-1 -1 1
-1 1 -1
-1 1 1
1 -1 -1
1 -1 1
1 1 -1
1 1 1
CELLS 12 48
3 1 5 7
3 7 5 4
3 1 4 5
3 4 1 0
3 7 3 1
3 4 6 7
3 0 2 6
3 2 3 6
3 3 2 0
3 0 1 3
3 7 6 3
3 6 4 0
CELL_TYPES 12
5
5
5
5
5
5
5
5
5
5
5
5
POINT_DATA 8
SCALARS GLOBAL_ID int 1
LOOKUP_TABLE default
-1 
-1 
-1 
-1 
-1 
-1 
-1 
-1 
CELL_DATA 12
SCALARS GLOBAL_ID int 1
LOOKUP_TABLE default
-1 
-1 
-1 
-1 
-1 
-1 
-1 
-1 
-1 
-1 
-1 
-1 
