# vtk DataFile Version 3.0
MOAB 5.5.1
ASCII
DATASET UNSTRUCTURED_GRID
POINTS 4 double
0 0 0
1 0 0
0 1 0
0 0 1
CELLS 4 16
3 2 1 0
3 3 1 2
3 3 2 0
3 0 1 3
CELL_TYPES 4
5
5
5
5
POINT_DATA 4
SCALARS GLOBAL_ID int 1
LOOKUP_TABLE default
-1 
-1 
-1 
-1 
CELL_DATA 4
SCALARS GLOBAL_ID int 1
LOOKUP_TABLE default
-1 
-1 
-1 
-1 
